! TOUCHSTONE file generated by CST MICROWAVE STUDIO
! Date and time: Sun Jul 12 01:46:42 2026
! Project name: rfx-patch_waveguide_port.cst
! Parameters = {Airgap=10; L=8.595; RO_L=30.595; RO_W=30.129; W=10.129; d=2.4; feed_w=1.8; g=0.9; h=0.787; patch_t=0.035}
! Header version: 2024
! Port assignment regex: !\s*Touchstone port\s*([0-9]+)\s*=\s*(CST MWS port|CST DES external port|CST DES block port)\s*(.+)\s* \(\"(.*)\"\)(\s*mode\s*([0-9]+))?.*
! Touchstone port assignment:
! Touchstone port 1 = CST MWS port 1 ("")
# GHz S MA R 50
7                      0.9902204        148.2275
7.005                  0.9893117        147.8717
7.01                   0.9883785        147.5192
7.015                  0.9874241        147.1699
7.02                   0.9864525        146.8239
7.025                  0.9854672        146.4813
7.03                   0.9844718         146.142
7.035                  0.9834702        145.8062
7.04                   0.9824657        145.4737
7.045                  0.9814622        145.1446
7.05                   0.9804629        144.8189
7.055                  0.9794719        144.4964
7.06                   0.9784919        144.1772
7.065                   0.977527        143.8613
7.07                   0.9765799        143.5484
7.075                  0.9756538        143.2385
7.08                   0.9747521        142.9316
7.085                  0.9738773        142.6276
7.09                   0.9730322        142.3262
7.095                  0.9722197        142.0274
7.1                    0.9714421        141.7311
7.105                  0.9707016        141.4371
7.11                   0.9700004        141.1452
7.115                  0.9693403        140.8552
7.12                   0.9687235        140.5672
7.125                  0.9681512        140.2807
7.13                   0.9676248        139.9958
7.135                  0.9671456        139.7121
7.14                   0.9667147        139.4295
7.145                  0.9663327        139.1478
7.15                       0.966        138.8668
7.155                  0.9657177        138.5864
7.16                   0.9654852        138.3063
7.165                  0.9653028        138.0263
7.17                   0.9651702        137.7463
7.175                  0.9650875        137.4661
7.18                   0.9650534        137.1854
7.185                  0.9650676        136.9042
7.19                   0.9651289        136.6222
7.195                  0.9652364        136.3392
7.2                    0.9653886        136.0552
7.205                  0.9655843        135.7698
7.21                   0.9658218         135.483
7.215                  0.9660991        135.1947
7.22                   0.9664149        134.9047
7.225                  0.9667666        134.6128
7.23                   0.9671525         134.319
7.235                  0.9675703        134.0231
7.24                   0.9680178        133.7251
7.245                  0.9684924        133.4248
7.25                   0.9689919        133.1222
7.255                  0.9695136        132.8172
7.26                   0.9700549        132.5097
7.265                  0.9706134        132.1997
7.27                   0.9711862        131.8871
7.275                  0.9717711        131.5719
7.28                    0.972365        131.2541
7.285                  0.9729654        130.9337
7.29                   0.9735698        130.6107
7.295                  0.9741754        130.2851
7.3                    0.9747795        129.9568
7.305                  0.9753798         129.626
7.31                   0.9759737        129.2926
7.315                  0.9765588        128.9568
7.32                   0.9771327        128.6184
7.325                  0.9776931        128.2777
7.33                   0.9782377        127.9347
7.335                  0.9787642        127.5894
7.34                    0.979271         127.242
7.345                  0.9797557        126.8924
7.35                   0.9802168        126.5409
7.355                  0.9806524        126.1875
7.36                   0.9810609        125.8322
7.365                  0.9814408        125.4753
7.37                   0.9817907        125.1168
7.375                  0.9821095        124.7568
7.38                   0.9823958        124.3955
7.385                  0.9826489         124.033
7.39                   0.9828674        123.6693
7.395                  0.9830512        123.3046
7.4                    0.9831994        122.9391
7.405                  0.9833114        122.5728
7.41                   0.9833872        122.2059
7.415                  0.9834264        121.8386
7.42                   0.9834289        121.4708
7.425                  0.9833948        121.1029
7.43                   0.9833243        120.7347
7.435                  0.9832177        120.3667
7.44                   0.9830754        119.9987
7.445                   0.982898         119.631
7.45                   0.9826862        119.2636
7.455                  0.9824408        118.8967
7.46                   0.9821626        118.5304
7.465                  0.9818527        118.1647
7.47                   0.9815121        117.7999
7.475                  0.9811422        117.4358
7.48                   0.9807441        117.0728
7.485                  0.9803193        116.7109
7.49                   0.9798692          116.35
7.495                  0.9793954        115.9904
7.5                    0.9788996        115.6321
7.505                  0.9783831         115.275
7.51                   0.9778481        114.9195
7.515                   0.977296        114.5653
7.52                   0.9767288        114.2127
7.525                  0.9761484        113.8616
7.53                   0.9755565        113.5121
7.535                  0.9749552        113.1641
7.54                   0.9743463        112.8178
7.545                  0.9737317        112.4732
7.55                   0.9731135        112.1301
7.555                  0.9724934        111.7887
7.56                   0.9718736         111.449
7.565                  0.9712557        111.1108
7.57                   0.9706417        110.7742
7.575                  0.9700334        110.4392
7.58                   0.9694326        110.1057
7.585                  0.9688411        109.7738
7.59                   0.9682604        109.4432
7.595                  0.9676925         109.114
7.6                    0.9671385        108.7862
7.605                  0.9666004        108.4596
7.61                   0.9660793        108.1342
7.615                  0.9655765        107.8099
7.62                   0.9650934        107.4866
7.625                  0.9646312        107.1643
7.63                    0.964191        106.8429
7.635                  0.9637735        106.5222
7.64                     0.96338        106.2022
7.645                  0.9630111        105.8828
7.65                   0.9626674        105.5638
7.655                  0.9623495        105.2452
7.66                    0.962058        104.9269
7.665                  0.9617931        104.6087
7.67                   0.9615551        104.2906
7.675                  0.9613442        103.9724
7.68                   0.9611605         103.654
7.685                  0.9610037        103.3354
7.69                   0.9608737        103.0164
7.695                  0.9607704        102.6969
7.7                    0.9606932        102.3769
7.705                  0.9606415        102.0561
7.71                   0.9606151        101.7345
7.715                   0.960613         101.412
7.72                   0.9606345        101.0886
7.725                  0.9606788        100.7641
7.73                   0.9607449        100.4384
7.735                  0.9608318        100.1114
7.74                   0.9609383        99.78314
7.745                  0.9610633        99.45347
7.75                   0.9612055        99.12231
7.755                  0.9613637        98.78964
7.76                   0.9615364        98.45539
7.765                  0.9617224        98.11946
7.77                   0.9619203        97.78185
7.775                  0.9621281        97.44248
7.78                   0.9623449        97.10134
7.785                  0.9625687        96.75838
7.79                   0.9627982        96.41357
7.795                  0.9630317        96.06692
7.8                    0.9632676        95.71837
7.805                  0.9635045        95.36795
7.81                   0.9637405        95.01563
7.815                  0.9639744        94.66143
7.82                   0.9642043        94.30533
7.825                  0.9644287        93.94736
7.83                   0.9646462        93.58755
7.835                  0.9648554        93.22591
7.84                   0.9650544        92.86246
7.845                  0.9652424        92.49726
7.85                   0.9654176         92.1303
7.855                  0.9655789        91.76167
7.86                   0.9657248        91.39139
7.865                  0.9658542         91.0195
7.87                    0.965966        90.64607
7.875                  0.9660592        90.27117
7.88                   0.9661326        89.89484
7.885                  0.9661851        89.51713
7.89                   0.9662164        89.13813
7.895                  0.9662251         88.7579
7.9                    0.9662108        88.37651
7.905                  0.9661727        87.99404
7.91                   0.9661102        87.61056
7.915                   0.966023        87.22614
7.92                   0.9659107        86.84085
7.925                  0.9657728        86.45479
7.93                   0.9656092        86.06802
7.935                  0.9654197        85.68061
7.94                   0.9652043        85.29267
7.945                  0.9649629        84.90424
7.95                   0.9646957        84.51543
7.955                  0.9644028         84.1263
7.96                   0.9640845        83.73692
7.965                  0.9637413        83.34737
7.97                   0.9633733        82.95773
7.975                  0.9629812        82.56806
7.98                   0.9625655        82.17843
7.985                   0.962127        81.78891
7.99                   0.9616662        81.39956
7.995                  0.9611839        81.01046
8                       0.960681        80.62162
8.005                  0.9601584        80.23314
8.01                    0.959617        79.84505
8.015                  0.9590578         79.4574
8.02                   0.9584819        79.07025
8.025                  0.9578902         78.6836
8.03                   0.9572842        78.29753
8.035                  0.9566646        77.91204
8.04                   0.9560329        77.52718
8.045                  0.9553903        77.14296
8.05                   0.9547378        76.75941
8.055                   0.954077        76.37651
8.06                    0.953409        75.99429
8.065                   0.952735        75.61275
8.07                   0.9520564        75.23191
8.075                  0.9513745        74.85174
8.08                   0.9506905        74.47224
8.085                  0.9500056        74.09339
8.09                   0.9493212        73.71516
8.095                  0.9486384        73.33753
8.1                    0.9479583        72.96048
8.105                  0.9472824        72.58396
8.11                   0.9466116        72.20794
8.115                   0.945947        71.83239
8.12                   0.9452897        71.45724
8.125                  0.9446408        71.08245
8.13                   0.9440009        70.70794
8.135                  0.9433715        70.33368
8.14                   0.9427527        69.95959
8.145                   0.942146        69.58561
8.15                   0.9415515        69.21166
8.155                  0.9409703        68.83768
8.16                   0.9404028        68.46359
8.165                  0.9398496        68.08929
8.17                    0.939311        67.71474
8.175                  0.9387874        67.33983
8.18                   0.9382792        66.96447
8.185                  0.9377864         66.5886
8.19                   0.9373094        66.21211
8.195                   0.936848        65.83492
8.2                    0.9364024        65.45692
8.205                  0.9359723        65.07807
8.21                   0.9355575        64.69824
8.215                  0.9351579        64.31737
8.22                   0.9347731        63.93534
8.225                  0.9344025         63.5521
8.23                   0.9340458        63.16754
8.235                  0.9337026        62.78158
8.24                   0.9333717        62.39415
8.245                  0.9330529        62.00516
8.25                   0.9327453        61.61453
8.255                  0.9324479        61.22219
8.26                     0.93216        60.82807
8.265                  0.9318805        60.43211
8.27                   0.9316085         60.0342
8.275                  0.9313428        59.63433
8.28                   0.9310824        59.23242
8.285                  0.9308261        58.82841
8.29                   0.9305727        58.42224
8.295                   0.930321        58.01389
8.3                    0.9300698        57.60329
8.305                  0.9298176        57.19042
8.31                   0.9295632        56.77522
8.315                  0.9293054        56.35768
8.32                   0.9290426        55.93777
8.325                  0.9287737        55.51545
8.33                   0.9284972        55.09071
8.335                  0.9282117        54.66356
8.34                    0.927916        54.23395
8.345                  0.9276087        53.80189
8.35                   0.9272882         53.3674
8.355                  0.9269536        52.93045
8.36                   0.9266033        52.49106
8.365                  0.9262362        52.04923
8.37                   0.9258508        51.60499
8.375                  0.9254462        51.15835
8.38                   0.9250209        50.70933
8.385                   0.924574        50.25796
8.39                   0.9241042        49.80425
8.395                  0.9236107        49.34825
8.4                    0.9230923        48.88998
8.405                  0.9225479        48.42949
8.41                   0.9219769        47.96681
8.415                  0.9213781        47.50199
8.42                   0.9207511        47.03506
8.425                  0.9200948        46.56606
8.43                   0.9194088        46.09505
8.435                  0.9186922        45.62208
8.44                   0.9179448        45.14719
8.445                  0.9171658        44.67043
8.45                    0.916355        44.19185
8.455                  0.9155119        43.71151
8.46                   0.9146362        43.22945
8.465                  0.9137279        42.74574
8.47                   0.9127866        42.26041
8.475                  0.9118124        41.77352
8.48                   0.9108052        41.28513
8.485                  0.9097649        40.79527
8.49                   0.9086918          40.304
8.495                   0.907586        39.81137
8.5                    0.9064478        39.31742
8.505                  0.9052775        38.82217
8.51                   0.9040753         38.3257
8.515                  0.9028418        37.82802
8.52                   0.9015773         37.3292
8.525                  0.9002823        36.82923
8.53                   0.8989577        36.32817
8.535                  0.8976037        35.82603
8.54                   0.8962212        35.32284
8.545                  0.8948108        34.81862
8.55                   0.8933732        34.31339
8.555                  0.8919093        33.80715
8.56                   0.8904198        33.29992
8.565                  0.8889054        32.79169
8.57                   0.8873672        32.28246
8.575                  0.8858059        31.77223
8.58                   0.8842223          31.261
8.585                  0.8826175        30.74872
8.59                   0.8809923         30.2354
8.595                  0.8793474          29.721
8.6                     0.877684        29.20549
8.605                  0.8760027        28.68883
8.61                   0.8743045        28.17099
8.615                  0.8725902         27.6519
8.62                   0.8708607        27.13153
8.625                  0.8691167        26.60979
8.63                   0.8673589        26.08665
8.635                  0.8655882        25.56202
8.64                   0.8638053        25.03583
8.645                  0.8620107        24.50799
8.65                   0.8602051        23.97841
8.655                   0.858389        23.44702
8.66                   0.8565628         22.9137
8.665                  0.8547271        22.37836
8.67                   0.8528822        21.84089
8.675                  0.8510284        21.30118
8.68                   0.8491659         20.7591
8.685                  0.8472948        20.21454
8.69                   0.8454152        19.66738
8.695                  0.8435274        19.11747
8.7                    0.8416308        18.56469
8.705                  0.8397257         18.0089
8.71                   0.8378115        17.44996
8.715                   0.835888        16.88772
8.72                   0.8339548        16.32204
8.725                  0.8320115        15.75275
8.73                   0.8300572        15.17972
8.735                  0.8280913        14.60279
8.74                   0.8261131        14.02179
8.745                  0.8241217        13.43657
8.75                   0.8221161        12.84697
8.755                  0.8200952        12.25283
8.76                   0.8180579        11.65398
8.765                  0.8160029        11.05025
8.77                    0.813929         10.4415
8.775                  0.8118346        9.827539
8.78                   0.8097183        9.208217
8.785                  0.8075787        8.583367
8.79                   0.8054139        7.952826
8.795                  0.8032222        7.316429
8.8                    0.8010021           6.674
8.805                  0.7987513        6.025408
8.81                   0.7964681        5.370509
8.815                  0.7941505        4.709062
8.82                   0.7917965        4.040967
8.825                  0.7894039        3.366067
8.83                   0.7869706        2.684199
8.835                  0.7844944        1.995213
8.84                   0.7819732        1.298955
8.845                  0.7794046       0.5952761
8.85                   0.7767862      -0.1159705
8.855                   0.774116      -0.8349315
8.86                   0.7713915       -1.561751
8.865                  0.7686102       -2.296573
8.87                     0.76577       -3.039537
8.875                  0.7628684       -3.790784
8.88                   0.7599031       -4.550453
8.885                  0.7568718       -5.318679
8.89                    0.753772       -6.095602
8.895                  0.7506015       -6.881354
8.9                     0.747358       -7.676073
8.905                  0.7440391       -8.479891
8.91                   0.7406428       -9.292947
8.915                  0.7371668       -10.11537
8.92                   0.7336088        -10.9473
8.925                   0.729967       -11.78887
8.93                    0.726239       -12.64022
8.935                  0.7224232       -13.50149
8.94                   0.7185172       -14.37282
8.945                  0.7145195       -15.25435
8.95                   0.7104283       -16.14623
8.955                  0.7062417       -17.04861
8.96                   0.7019583       -17.96164
8.965                  0.6975764       -18.88549
8.97                   0.6930946       -19.82031
8.975                  0.6885116       -20.76628
8.98                   0.6838261       -21.72357
8.985                  0.6790371       -22.69236
8.99                   0.6741434       -23.67284
8.995                  0.6691442       -24.66522
9                      0.6640387        -25.6697
9.005                  0.6588261        -26.6865
9.01                    0.653506       -27.71585
9.015                   0.648078       -28.75799
9.02                   0.6425418       -29.81319
9.025                  0.6368972        -30.8817
9.03                   0.6311444       -31.96383
9.035                  0.6252835       -33.05985
9.04                   0.6193147       -34.17011
9.045                  0.6132386       -35.29494
9.05                   0.6070558       -36.43471
9.055                  0.6007671       -37.58979
9.06                   0.5943735       -38.76061
9.065                  0.5878764       -39.94758
9.07                   0.5812769       -41.15118
9.075                  0.5745767       -42.37192
9.08                   0.5677775       -43.61031
9.085                  0.5608813       -44.86693
9.09                   0.5538903       -46.14236
9.095                   0.546807       -47.43726
9.1                    0.5396339       -48.75231
9.105                   0.532374       -50.08825
9.11                   0.5250305       -51.44587
9.115                  0.5176067         -52.826
9.12                   0.5101064       -54.22955
9.125                  0.5025336       -55.65747
9.13                   0.4948925       -57.11078
9.135                  0.4871878       -58.59059
9.14                   0.4794245       -60.09807
9.145                  0.4716078       -61.63449
9.15                   0.4637437       -63.20117
9.155                   0.455838       -64.79953
9.16                   0.4478975       -66.43113
9.165                  0.4399291       -68.09758
9.17                   0.4319403       -69.80063
9.175                  0.4239392        -71.5421
9.18                   0.4159343       -73.32399
9.185                  0.4079349       -75.14836
9.19                   0.3999508       -77.01741
9.195                  0.3919924       -78.93352
9.2                    0.3840709       -80.89907
9.205                  0.3761984        -82.9167
9.21                   0.3683877       -84.98906
9.215                  0.3606525       -87.11895
9.22                   0.3530073       -89.30926
9.225                  0.3454677       -91.56295
9.23                   0.3380502       -93.88301
9.235                  0.3307726       -96.27242
9.24                   0.3236535       -98.73419
9.245                  0.3167126       -101.2712
9.25                   0.3099709        -103.886
9.255                  0.3034503       -106.5813
9.26                   0.2971738        -109.359
9.265                  0.2911652       -112.2208
9.27                   0.2854492       -115.1678
9.275                  0.2800511       -118.2004
9.28                   0.2749965       -121.3181
9.285                  0.2703112       -124.5193
9.29                   0.2660208       -127.8016
9.295                    0.26215       -131.1609
9.3                    0.2587224       -134.5921
9.305                  0.2557603       -138.0888
9.31                   0.2532836        -141.643
9.315                  0.2513094       -145.2454
9.32                   0.2498522       -148.8858
9.325                  0.2489224       -152.5528
9.33                   0.2485269       -156.2345
9.335                  0.2486683       -159.9185
9.34                   0.2493451       -163.5923
9.345                  0.2505517       -167.2439
9.35                   0.2522785       -170.8615
9.355                  0.2545124       -174.4345
9.36                   0.2572367       -177.9533
9.365                  0.2604321        178.5906
9.37                   0.2640771        175.2041
9.375                  0.2681482         171.893
9.38                   0.2726207        168.6617
9.385                  0.2774692        165.5131
9.39                   0.2826679        162.4492
9.395                  0.2881908        159.4707
9.4                    0.2940122        156.5777
9.405                  0.3001075        153.7693
9.41                    0.306452         151.044
9.415                  0.3130227        148.3999
9.42                    0.319797        145.8347
9.425                  0.3267538        143.3458
9.43                   0.3338728        140.9302
9.435                  0.3411351        138.5851
9.44                   0.3485225        136.3075
9.445                  0.3560181        134.0944
9.45                   0.3636063        131.9428
9.455                   0.371272        129.8497
9.46                   0.3790012        127.8124
9.465                  0.3867811        125.8282
9.47                   0.3945995        123.8943
9.475                  0.4024448        122.0084
9.48                   0.4103064        120.1679
9.485                  0.4181746        118.3708
9.49                   0.4260399        116.6148
9.495                  0.4338937        114.8979
9.5                    0.4417278        113.2183
9.505                  0.4495348        111.5741
9.51                   0.4573076        109.9638
9.515                  0.4650396        108.3856
9.52                   0.4727246        106.8382
9.525                   0.480357        105.3202
9.53                   0.4879314        103.8302
9.535                  0.4954429        102.3672
9.54                   0.5028869        100.9298
9.545                  0.5102591        99.51721
9.55                   0.5175556        98.12828
9.555                  0.5247727        96.76214
9.56                    0.531907        95.41791
9.565                  0.5389556         94.0948
9.57                   0.5459153        92.79202
9.575                  0.5527837        91.50889
9.58                   0.5595586        90.24471
9.585                  0.5662376         88.9989
9.59                   0.5728189        87.77084
9.595                  0.5793008           86.56
9.6                    0.5856817        85.36587
9.605                  0.5919605        84.18795
9.61                   0.5981359        83.02581
9.615                  0.6042068          81.879
9.62                   0.6101728        80.74714
9.625                   0.616033        79.62983
9.63                   0.6217871        78.52673
9.635                  0.6274346        77.43749
9.64                   0.6329757        76.36184
9.645                  0.6384101        75.29942
9.65                   0.6437381        74.24997
9.655                  0.6489598        73.21324
9.66                   0.6540758        72.18895
9.665                  0.6590866        71.17686
9.67                   0.6639929        70.17676
9.675                  0.6687951        69.18842
9.68                   0.6734945        68.21163
9.685                   0.678092        67.24616
9.69                   0.6825885        66.29187
9.695                  0.6869855        65.34855
9.7                     0.691284        64.41601
9.705                  0.6954855        63.49409
9.71                   0.6995914        62.58262
9.715                  0.7036033        61.68144
9.72                   0.7075228        60.79041
9.725                  0.7113515        59.90937
9.73                   0.7150912        59.03813
9.735                  0.7187438        58.17659
9.74                    0.722311        57.32459
9.745                  0.7257948        56.48198
9.75                   0.7291973        55.64862
9.755                  0.7325202         54.8244
9.76                   0.7357657        54.00915
9.765                   0.738936        53.20274
9.77                   0.7420331        52.40505
9.775                  0.7450592        51.61593
9.78                   0.7480163        50.83523
9.785                  0.7509066        50.06284
9.79                   0.7537324        49.29862
9.795                  0.7564958        48.54242
9.8                     0.759199        47.79411
9.805                  0.7618442        47.05354
9.81                   0.7644335         46.3206
9.815                   0.766969        45.59513
9.82                    0.769453        44.87699
9.825                  0.7718876        44.16604
9.83                   0.7742748        43.46214
9.835                  0.7766167        42.76514
9.84                   0.7789152        42.07491
9.845                  0.7811724        41.39128
9.85                   0.7833904        40.71413
9.855                  0.7855709        40.04329
9.86                   0.7877156        39.37863
9.865                  0.7898266        38.71999
9.87                   0.7919055        38.06722
9.875                  0.7939542        37.42018
9.88                    0.795974         36.7787
9.885                  0.7979665        36.14265
9.89                   0.7999334        35.51187
9.895                   0.801876        34.88621
9.9                    0.8037957        34.26552
9.905                  0.8056937        33.64965
9.91                   0.8075714        33.03845
9.915                  0.8094298        32.43178
9.92                   0.8112698        31.82947
9.925                  0.8130926        31.23139
9.93                   0.8148992         30.6374
9.935                  0.8166902        30.04734
9.94                   0.8184666        29.46108