! TOUCHSTONE file generated by CST MICROWAVE STUDIO
! Date and time: Sun Jul 12 01:46:21 2026
! Project name: rfx-patch_discrete_port.cst
! Parameters = {Airgap=10; L=8.595; RO_L=30.595; RO_W=30.129; W=10.129; d=2.4; feed_w=1.8; g=0.9; h=0.787; patch_t=0.035}
! Header version: 2024
! Port assignment regex: !\s*Touchstone port\s*([0-9]+)\s*=\s*(CST MWS port|CST DES external port|CST DES block port)\s*(.+)\s* \(\"(.*)\"\)(\s*mode\s*([0-9]+))?.*
! Touchstone port assignment:
! Touchstone port 1 = CST MWS port 1 ("")
# GHz S MA R 50
7                      0.9842281        86.38174
7.005                   0.983584        86.20661
7.01                   0.9829869        86.03496
7.015                  0.9824414        85.86647
7.02                   0.9819514        85.70082
7.025                  0.9815203        85.53772
7.03                    0.981151        85.37677
7.035                  0.9808456        85.21763
7.04                    0.980606        85.05991
7.045                   0.980433        84.90324
7.05                   0.9803272        84.74722
7.055                  0.9802882        84.59149
7.06                   0.9803153        84.43565
7.065                  0.9804071        84.27935
7.07                   0.9805615        84.12223
7.075                   0.980776        83.96396
7.08                   0.9810476        83.80418
7.085                  0.9813727        83.64263
7.09                   0.9817473        83.47902
7.095                  0.9821671        83.31307
7.1                    0.9826274        83.14461
7.105                   0.983123        82.97341
7.11                    0.983649        82.79931
7.115                  0.9841993        82.62219
7.12                   0.9847687        82.44192
7.125                  0.9853514        82.25846
7.13                   0.9859415        82.07178
7.135                  0.9865335        81.88187
7.14                   0.9871214        81.68874
7.145                  0.9876998        81.49247
7.15                   0.9882631        81.29314
7.155                  0.9888062        81.09088
7.16                    0.989324        80.88581
7.165                   0.989812        80.67809
7.17                   0.9902656        80.46794
7.175                  0.9906809        80.25558
7.18                   0.9910541        80.04119
7.185                  0.9913823        79.82506
7.19                   0.9916624        79.60745
7.195                  0.9918923         79.3886
7.2                    0.9920699         79.1688
7.205                  0.9921939        78.94836
7.21                   0.9922634        78.72756
7.215                   0.992278        78.50667
7.22                   0.9922378        78.28601
7.225                  0.9921432        78.06586
7.23                   0.9919953         77.8465
7.235                  0.9917955        77.62822
7.24                   0.9915456        77.41127
7.245                   0.991248        77.19591
7.25                   0.9909055        76.98239
7.255                  0.9905211         76.7709
7.26                   0.9900979        76.56168
7.265                  0.9896401        76.35489
7.27                   0.9891512         76.1507
7.275                  0.9886357        75.94927
7.28                   0.9880979        75.75069
7.285                  0.9875423        75.55507
7.29                   0.9869736        75.36247
7.295                  0.9863963        75.17296
7.3                    0.9858156        74.98653
7.305                   0.985236        74.80315
7.31                   0.9846621        74.62285
7.315                  0.9840985        74.44551
7.32                   0.9835497        74.27107
7.325                  0.9830202        74.09942
7.33                   0.9825138        73.93041
7.335                  0.9820343        73.76393
7.34                   0.9815852        73.59977
7.345                  0.9811698        73.43774
7.35                   0.9807911        73.27763
7.355                  0.9804514        73.11923
7.36                    0.980153        72.96227
7.365                  0.9798976        72.80656
7.37                   0.9796864         72.6518
7.375                  0.9795204        72.49774
7.38                   0.9794001        72.34412
7.385                  0.9793255        72.19068
7.39                   0.9792963        72.03715
7.395                  0.9793116         71.8833
7.4                    0.9793704        71.72883
7.405                  0.9794709        71.57351
7.41                   0.9796114        71.41718
7.415                  0.9797893        71.25951
7.42                   0.9800023        71.10037
7.425                  0.9802473        70.93956
7.43                   0.9805211        70.77694
7.435                  0.9808204        70.61231
7.44                   0.9811415        70.44554
7.445                  0.9814806        70.27662
7.45                   0.9818339        70.10534
7.455                  0.9821974        69.93172
7.46                   0.9825668        69.75569
7.465                  0.9829382        69.57726
7.47                   0.9833074        69.39642
7.475                  0.9836706        69.21318
7.48                   0.9840237        69.02762
7.485                  0.9843629        68.83982
7.49                   0.9846847        68.64983
7.495                  0.9849854        68.45779
7.5                    0.9852619        68.26382
7.505                  0.9855112        68.06804
7.51                   0.9857305        67.87067
7.515                  0.9859173        67.67183
7.52                   0.9860695        67.47171
7.525                  0.9861853        67.27054
7.53                   0.9862631        67.06845
7.535                  0.9863017        66.86571
7.54                   0.9863004        66.66249
7.545                  0.9862586        66.45903
7.55                   0.9861764        66.25558
7.555                  0.9860538        66.05228
7.56                   0.9858916        65.84932
7.565                  0.9856906        65.64703
7.57                   0.9854521        65.44549
7.575                  0.9851777        65.24496
7.58                   0.9848692        65.04557
7.585                  0.9845288        64.84749
7.59                   0.9841589        64.65097
7.595                  0.9837623        64.45601
7.6                    0.9833417        64.26285
7.605                  0.9829001        64.07155
7.61                    0.982441         63.8822
7.615                  0.9819675        63.69491
7.62                    0.981483        63.50971
7.625                  0.9809912        63.32663
7.63                   0.9804956        63.14568
7.635                  0.9799997        62.96692
7.64                   0.9795071        62.79024
7.645                  0.9790213        62.61566
7.65                   0.9785455         62.4431
7.655                  0.9780832        62.27248
7.66                   0.9776373        62.10372
7.665                   0.977211        61.93668
7.67                   0.9768067        61.77124
7.675                  0.9764272        61.60726
7.68                   0.9760746        61.44458
7.685                   0.975751        61.28303
7.69                   0.9754582        61.12243
7.695                  0.9751972        60.96258
7.7                    0.9749696        60.80331
7.705                  0.9747759        60.64438
7.71                   0.9746168        60.48562
7.715                  0.9744921        60.32681
7.72                   0.9744018        60.16774
7.725                  0.9743454        60.00822
7.73                    0.974322        59.84805
7.735                  0.9743304        59.68704
7.74                   0.9743695        59.52497
7.745                  0.9744373         59.3617
7.75                   0.9745319        59.19707
7.755                  0.9746509         59.0309
7.76                   0.9747921        58.86307
7.765                  0.9749528        58.69346
7.77                   0.9751302        58.52194
7.775                  0.9753213        58.34845
7.78                   0.9755232        58.17288
7.785                  0.9757324         57.9952
7.79                   0.9759461        57.81534
7.795                  0.9761608        57.63331
7.8                    0.9763732        57.44909
7.805                    0.97658         57.2627
7.81                   0.9767784        57.07416
7.815                  0.9769649        56.88354
7.82                   0.9771368        56.69089
7.825                  0.9772911         56.4963
7.83                   0.9774251        56.29985
7.835                  0.9775363        56.10166
7.84                   0.9776226        55.90186
7.845                  0.9776816        55.70057
7.85                   0.9777116        55.49794
7.855                  0.9777109        55.29413
7.86                   0.9776785        55.08928
7.865                   0.977613        54.88357
7.87                   0.9775137        54.67717
7.875                  0.9773801        54.47025
7.88                   0.9772122        54.26298
7.885                  0.9770098        54.05555
7.89                   0.9767736         53.8481
7.895                  0.9765039        53.64084
7.9                    0.9762019        53.43391
7.905                  0.9758688        53.22747
7.91                   0.9755061        53.02167
7.915                  0.9751153        52.81667
7.92                   0.9746985        52.61257
7.925                  0.9742578        52.40953
7.93                   0.9737956        52.20762
7.935                  0.9733143        52.00695
7.94                   0.9728166         51.8076
7.945                  0.9723053        51.60963
7.95                   0.9717831        51.41311
7.955                  0.9712532        51.21804
7.96                   0.9707185        51.02444
7.965                  0.9701818        50.83234
7.97                   0.9696462        50.64169
7.975                  0.9691148        50.45247
7.98                   0.9685903        50.26463
7.985                  0.9680755        50.07808
7.99                   0.9675732        49.89276
7.995                  0.9670859        49.70857
8                      0.9666159        49.52539
8.005                  0.9661654        49.34309
8.01                   0.9657364        49.16152
8.015                  0.9653308        48.98056
8.02                   0.9649499        48.80002
8.025                   0.964595        48.61975
8.03                   0.9642674        48.43956
8.035                  0.9639674        48.25928
8.04                   0.9636959        48.07872
8.045                  0.9634527        47.89768
8.05                   0.9632379        47.71599
8.055                   0.963051        47.53345
8.06                   0.9628911         47.3499
8.065                  0.9627576        47.16513
8.07                   0.9626491        46.97897
8.075                  0.9625641        46.79127
8.08                   0.9625009        46.60186
8.085                  0.9624576        46.41059
8.09                   0.9624319        46.21733
8.095                  0.9624214        46.02196
8.1                    0.9624239        45.82435
8.105                  0.9624364        45.62443
8.11                   0.9624563        45.42209
8.115                  0.9624806        45.21728
8.12                   0.9625064        45.00996
8.125                  0.9625308        44.80007
8.13                   0.9625504        44.58762
8.135                  0.9625627        44.37258
8.14                   0.9625643        44.15499
8.145                  0.9625526        43.93487
8.15                   0.9625244        43.71228
8.155                  0.9624773        43.48726
8.16                   0.9624086        43.25989
8.165                  0.9623156        43.03028
8.17                   0.9621965        42.79849
8.175                  0.9620489        42.56468
8.18                    0.961871        42.32893
8.185                  0.9616611         42.0914
8.19                   0.9614178        41.85222
8.195                    0.96114        41.61154
8.2                    0.9608267        41.36949
8.205                  0.9604775        41.12626
8.21                   0.9600917        40.88197
8.215                  0.9596693        40.63681
8.22                   0.9592107        40.39091
8.225                  0.9587161        40.14443
8.23                   0.9581862        39.89753
8.235                  0.9576221        39.65035
8.24                    0.957025        39.40303
8.245                  0.9563963        39.15569
8.25                   0.9557376        38.90848
8.255                  0.9550509        38.66147
8.26                   0.9543383        38.41479
8.265                  0.9536019        38.16852
8.27                   0.9528445        37.92272
8.275                   0.952068        37.67747
8.28                   0.9512755        37.43278
8.285                  0.9504696        37.18872
8.29                   0.9496531        36.94526
8.295                  0.9488287        36.70241
8.3                    0.9479994        36.46015
8.305                  0.9471679        36.21841
8.31                   0.9463369        35.97717
8.315                  0.9455091        35.73633
8.32                   0.9446871        35.49579
8.325                  0.9438732        35.25546
8.33                     0.94307        35.01519
8.335                  0.9422792        34.77486
8.34                    0.941503        34.53431
8.345                  0.9407432        34.29336
8.35                    0.940001        34.05183
8.355                  0.9392777        33.80954
8.36                   0.9385743        33.56629
8.365                  0.9378915        33.32186
8.37                   0.9372295        33.07604
8.375                  0.9365886        32.82862
8.38                   0.9359685        32.57937
8.385                  0.9353687        32.32807
8.39                   0.9347884         32.0745
8.395                  0.9342264        31.81845
8.4                    0.9336813        31.55968
8.405                  0.9331516          31.298
8.41                   0.9326352         31.0332
8.415                  0.9321297        30.76509
8.42                   0.9316332        30.49348
8.425                  0.9311423         30.2182
8.43                   0.9306547        29.93909
8.435                   0.930167        29.65601
8.44                    0.929676        29.36883
8.445                  0.9291785        29.07742
8.45                   0.9286708        28.78169
8.455                  0.9281494        28.48156
8.46                   0.9276108        28.17695
8.465                  0.9270512        27.86783
8.47                   0.9264671        27.55415
8.475                  0.9258548        27.23591
8.48                   0.9252106        26.91309
8.485                  0.9245311        26.58573
8.49                    0.923813        26.25385
8.495                  0.9230528        25.91751
8.5                    0.9222476        25.57675
8.505                  0.9213943        25.23167
8.51                   0.9204903        24.88234
8.515                   0.919533        24.52886
8.52                   0.9185199        24.17135
8.525                  0.9174493        23.80991
8.53                    0.916319        23.44468
8.535                  0.9151278        23.07576
8.54                   0.9138742        22.70331
8.545                  0.9125574        22.32745
8.55                   0.9111764        21.94831
8.555                  0.9097311        21.56603
8.56                    0.908221        21.18073
8.565                  0.9066466        20.79254
8.57                   0.9050082        20.40158
8.575                  0.9033064        20.00795
8.58                   0.9015419        19.61176
8.585                  0.8997163        19.21309
8.59                   0.8978306        18.81201
8.595                  0.8958864        18.40858
8.6                    0.8938855        18.00284
8.605                  0.8918296        17.59483
8.61                    0.889721        17.18454
8.615                  0.8875614        16.77196
8.62                   0.8853532        16.35705
8.625                  0.8830985        15.93975
8.63                   0.8807997        15.51998
8.635                  0.8784587        15.09763
8.64                   0.8760776        14.67258
8.645                  0.8736584        14.24466
8.65                   0.8712033        13.81369
8.655                  0.8687136        13.37947
8.66                   0.8661911        12.94176
8.665                  0.8636368        12.50032
8.67                   0.8610521        12.05485
8.675                  0.8584374        11.60506
8.68                   0.8557933        11.15062
8.685                  0.8531198        10.69119
8.69                   0.8504167        10.22639
8.695                  0.8476831        9.755841
8.7                    0.8449181        9.279145
8.705                  0.8421202        8.795885
8.71                   0.8392872        8.305626
8.715                  0.8364168        7.807931
8.72                   0.8335062        7.302347
8.725                  0.8305517        6.788418
8.73                   0.8275499        6.265678
8.735                  0.8244963        5.733665
8.74                   0.8213861         5.19191
8.745                  0.8182141        4.639949
8.75                    0.814975        4.077318
8.755                  0.8116624        3.503563
8.76                   0.8082699        2.918233
8.765                  0.8047909        2.320886
8.77                    0.801218        1.711092
8.775                  0.7975439        1.088432
8.78                   0.7937608       0.4525006
8.785                  0.7898606      -0.1970944
8.79                   0.7858351      -0.8607299
8.795                  0.7816759        -1.53875
8.8                    0.7773744       -2.231551
8.805                  0.7729218       -2.939411
8.81                   0.7683094       -3.662659
8.815                  0.7635285       -4.401591
8.82                   0.7585701       -5.156487
8.825                  0.7534257       -5.927612
8.83                   0.7480866       -6.715215
8.835                   0.742544       -7.519535
8.84                   0.7367899       -8.340794
8.845                   0.730816       -9.179207
8.85                   0.7246145       -10.03498
8.855                  0.7181776        -10.9083
8.86                   0.7114981       -11.79936
8.865                  0.7045691       -12.70836
8.87                   0.6973839       -13.63548
8.875                  0.6899365       -14.58091
8.88                    0.682221       -15.54484
8.885                  0.6742324       -16.52747
8.89                   0.6659657       -17.52902
8.895                  0.6574168       -18.54973
8.9                    0.6485821       -19.58984
8.905                  0.6394583       -20.64963
8.91                    0.630043       -21.72941
8.915                  0.6203345       -22.82952
8.92                    0.610331       -23.95035
8.925                  0.6000323       -25.09235
8.93                   0.5894381       -26.25602
8.935                  0.5785493       -27.44191
8.94                   0.5673671        -28.6507
8.945                  0.5558937       -29.88312
8.95                   0.5441317       -31.14003
8.955                  0.5320847       -32.42241
8.96                   0.5197569       -33.73138
8.965                  0.5071533       -35.06825
8.97                   0.4942796       -36.43452
8.975                  0.4811424       -37.83191
8.98                    0.467749       -39.26242
8.985                  0.4541078       -40.72838
8.99                   0.4402278       -42.23247
8.995                  0.4261191       -43.77785
9                      0.4117927       -45.36817
9.005                   0.397261       -47.00779
9.01                   0.3825372       -48.70173
9.015                  0.3676361       -50.45602
9.02                    0.352574       -52.27781
9.025                  0.3373686       -54.17562
9.03                   0.3220402       -56.15966
9.035                  0.3066111       -58.24235
9.04                   0.2911067       -60.43868
9.045                   0.275556       -62.76707
9.05                   0.2599928       -65.25019
9.055                  0.2444567       -67.91616
9.06                    0.228995       -70.80011
9.065                  0.2136651       -73.94618
9.07                   0.1985381       -77.41012
9.075                  0.1837036        -81.2624
9.08                   0.1692763       -85.59198
9.085                   0.155405       -90.50971
9.09                   0.1422848       -96.15018
9.095                  0.1301716       -102.6677
9.1                    0.1193952       -110.2193
9.105                  0.1103644       -118.9225
9.11                   0.1035453       -128.7814
9.115                 0.09939324       -139.5949
9.12                  0.09823641       -150.9142
9.125                  0.1001589       -162.1274
9.13                   0.1049642       -172.6583
9.135                   0.112249        177.8618
9.14                   0.1215299        169.5568
9.145                   0.132346         162.375
9.15                   0.1443085         156.179
9.155                  0.1571107        150.8096
9.16                   0.1705172        146.1179
9.165                  0.1843498        141.9772
9.17                   0.1984727        138.2843
9.175                  0.2127819        134.9566
9.18                   0.2271963         131.929
9.185                  0.2416519        129.1498
9.19                   0.2560973        126.5783
9.195                  0.2704905        124.1818
9.2                     0.284797         121.934
9.205                  0.2989877        119.8138
9.21                    0.313038        117.8041
9.215                   0.326927        115.8906
9.22                   0.3406364        114.0618
9.225                  0.3541508        112.3079
9.23                   0.3674563         110.621
9.235                  0.3805412        108.9943
9.24                    0.393395         107.422
9.245                  0.4060088        105.8992
9.25                   0.4183748        104.4219
9.255                  0.4304863        102.9866
9.26                   0.4423378          101.59
9.265                  0.4539245        100.2297
9.27                   0.4652427        98.90342
9.275                  0.4762894         97.6091
9.28                   0.4870625        96.34502
9.285                  0.4975604        95.10971
9.29                   0.5077826        93.90186
9.295                  0.5177291        92.72026
9.3                    0.5274004        91.56389
9.305                   0.536798        90.43185
9.31                   0.5459237        89.32328
9.315                  0.5547799         88.2375
9.32                   0.5633696         87.1738
9.325                  0.5716963        86.13158
9.33                   0.5797643         85.1103
9.335                  0.5875777        84.10945
9.34                   0.5951415        83.12855
9.345                  0.6024612        82.16713
9.35                   0.6095423        81.22482
9.355                  0.6163908        80.30118
9.36                   0.6230131        79.39585
9.365                  0.6294159        78.50842
9.37                   0.6356058        77.63855
9.375                  0.6415901        76.78584
9.38                   0.6473759        75.94996
9.385                  0.6529707        75.13053
9.39                   0.6583819        74.32718
9.395                  0.6636171        73.53954
9.4                    0.6686838        72.76726
9.405                  0.6735898         72.0099
9.41                   0.6783425         71.2671
9.415                  0.6829495        70.53849
9.42                   0.6874182        69.82363
9.425                  0.6917559         69.1221
9.43                   0.6959697        68.43348
9.435                  0.7000665        67.75736
9.44                   0.7040532        67.09327
9.445                  0.7079363         66.4408
9.45                   0.7117219        65.79947
9.455                   0.715416        65.16884
9.46                   0.7190242        64.54844
9.465                  0.7225521        63.93782
9.47                   0.7260043        63.33653
9.475                  0.7293858        62.74409
9.48                   0.7327008        62.16004
9.485                   0.735953        61.58394
9.49                   0.7391463        61.01534
9.495                   0.742284        60.45378
9.5                    0.7453685        59.89885
9.505                  0.7484026        59.35012
9.51                   0.7513884        58.80717
9.515                  0.7543276        58.26961
9.52                   0.7572216        57.73707
9.525                  0.7600717        57.20915
9.53                   0.7628786        56.68553
9.535                  0.7656428        56.16586
9.54                   0.7683646        55.64984
9.545                  0.7710439        55.13716
9.55                   0.7736806        54.62756
9.555                  0.7762743        54.12077
9.56                   0.7788241        53.61658
9.565                  0.7813296        53.11477
9.57                   0.7837897        52.61514
9.575                  0.7862034        52.11752
9.58                   0.7885695        51.62179
9.585                  0.7908869        51.12778
9.59                   0.7931544        50.63542
9.595                  0.7953708        50.14461
9.6                    0.7975348        49.65527
9.605                  0.7996453        49.16735
9.61                   0.8017011        48.68083
9.615                  0.8037011        48.19567
9.62                   0.8056444        47.71189
9.625                  0.8075301        47.22946
9.63                   0.8093575        46.74845
9.635                  0.8111258        46.26885
9.64                   0.8128348        45.79073
9.645                  0.8144841        45.31412
9.65                   0.8160734        44.83909
9.655                  0.8176029         44.3657
9.66                   0.8190727        43.89402
9.665                  0.8204832        43.42411
9.67                    0.821835        42.95605
9.675                  0.8231288        42.48992
9.68                   0.8243656        42.02579
9.685                  0.8255465        41.56372
9.69                   0.8266729        41.10377
9.695                   0.827746        40.64603
9.7                    0.8287676        40.19054
9.705                  0.8297394        39.73734
9.71                   0.8306633        39.28649
9.715                  0.8315414        38.83802
9.72                   0.8323757        38.39197
9.725                  0.8331685        37.94834
9.73                   0.8339221        37.50714
9.735                  0.8346391        37.06836
9.74                   0.8353217        36.63199
9.745                  0.8359725        36.19802
9.75                    0.836594        35.76639
9.755                  0.8371888        35.33704
9.76                   0.8377592        34.90993
9.765                  0.8383078        34.48499
9.77                   0.8388371        34.06211
9.775                  0.8393494        33.64122
9.78                    0.839847        33.22218
9.785                   0.840332         32.8049
9.79                   0.8408066        32.38926
9.795                  0.8412728        31.97508
9.8                    0.8417323        31.56226
9.805                   0.842187        31.15061
9.81                   0.8426384           30.74
9.815                  0.8430877        30.33025
9.82                   0.8435364        29.92119
9.825                  0.8439854        29.51265
9.83                   0.8444354        29.10445
9.835                  0.8448874        28.69642
9.84                   0.8453418        28.28836
9.845                  0.8457987        27.88011
9.85                   0.8462586        27.47149
9.855                  0.8467213        27.06231
9.86                   0.8471865        26.65242
9.865                   0.847654        26.24164
9.87                   0.8481231        25.82981
9.875                  0.8485932        25.41677
9.88                   0.8490634        25.00238
9.885                  0.8495329        24.58649
9.89                   0.8500006        24.16896
9.895                  0.8504651        23.74969
9.9                    0.8509254        23.32855
9.905                  0.8513798        22.90543
9.91                   0.8518269        22.48025
9.915                  0.8522657        22.05291
9.92                   0.8526941        21.62334
9.925                  0.8531108        21.19148
9.93                   0.8535143        20.75728
9.935                  0.8539029        20.32069
9.94                    0.854275        19.88168